<VTKFile type="UnstructuredGrid">
<UnstructuredGrid>
<Piece NumberOfPoints="1755" NumberOfCells="2496">
<Points>
<DataArray type="Float64" Name="coordinates" NumberOfComponents="3" format="ascii">
7.95491e-05 -0.5 -0.0999545 
0.0559157 -0.444702 -0.0682499 
0.117768 -0.383231 -0.0434085 
0.183578 -0.317644 -0.0256358 
0.251289 -0.25 -0.0151376 
0.318845 -0.182356 -0.0121193 
0.384186 -0.116769 -0.0167866 
0.445257 -0.0552982 -0.0293449 
0.5 0 -0.05 
0.0559157 -0.5 -0.0682499 
0.115724 -0.442644 -0.0429684 
0.180172 -0.379801 -0.0249024 
0.247202 -0.313529 -0.0142575 
0.314757 -0.245885 -0.0112392 
0.38078 -0.178926 -0.0160531 
0.443213 -0.114712 -0.0289049 
0.5 -0.0552982 -0.05 
0.117768 -0.5 -0.0434085 
0.180172 -0.441272 -0.0249024 
0.245839 -0.377744 -0.0139641 
0.312713 -0.311471 -0.0107991 
0.378736 -0.244513 -0.0156131 
0.441851 -0.178926 -0.0286115 
0.5 -0.116769 -0.05 
0.183578 -0.5 -0.0256358 
0.247202 -0.440586 -0.0142575 
0.312713 -0.377058 -0.0107991 
0.378055 -0.311471 -0.0154664 
0.44117 -0.245885 -0.0284648 
0.5 -0.182356 -0.05 
0.251289 -0.5 -0.0151376 
0.314757 -0.440586 -0.0112392 
0.378736 -0.377744 -0.0156131 
0.44117 -0.313529 -0.0284648 
0.5 -0.25 -0.05 
0.318845 -0.5 -0.0121193 
0.38078 -0.441272 -0.0160531 
0.441851 -0.379801 -0.0286115 
0.5 -0.317644 -0.05 
0.384186 -0.5 -0.0167866 
0.443213 -0.442644 -0.0289049 
0.5 -0.383231 -0.05 
0.445257 -0.5 -0.0293449 
0.5 -0.444702 -0.05 
0.5 -0.5 -0.05 
7.95491e-05 -0.5 -0.0999545 
0.0559157 -0.444702 -0.0682499 
0.117768 -0.383231 -0.0434085 
0.183578 -0.317644 -0.0256358 
0.251289 -0.25 -0.0151376 
0.318845 -0.182356 -0.0121193 
0.384186 -0.116769 -0.0167866 
0.445257 -0.0552982 -0.0293449 
0.5 0 -0.05 
0.0559242 -0.5 -0.0737793 
0.115731 -0.442644 -0.0487036 
0.180178 -0.379801 -0.0307749 
0.247207 -0.313529 -0.0201986 
0.314761 -0.245885 -0.0171804 
0.380783 -0.178926 -0.0219258 
0.443215 -0.114712 -0.0346404 
0.5 -0.0552982 -0.0555298 
0.117782 -0.5 -0.0550847 
0.180184 -0.441272 -0.0369217 
0.245849 -0.377744 -0.0261893 
0.312721 -0.311471 -0.023093 
0.378741 -0.244513 -0.0278385 
0.441854 -0.178926 -0.0406313 
0.5 -0.116769 -0.0616769 
0.183596 -0.5 -0.0438705 
0.247217 -0.440586 -0.0329039 
0.312724 -0.377058 -0.0296515 
0.378063 -0.311471 -0.0343189 
0.441173 -0.245885 -0.0471118 
0.5 -0.182356 -0.0682356 
0.251309 -0.5 -0.0401367 
0.314772 -0.440586 -0.03665 
0.378746 -0.377744 -0.0411613 
0.441175 -0.313529 -0.0538761 
0.5 -0.25 -0.075 
0.318863 -0.5 -0.0438828 
0.380792 -0.441272 -0.0481599 
0.441857 -0.379801 -0.0607186 
0.5 -0.317644 -0.0817644 
0.384201 -0.5 -0.0551089 
0.443221 -0.442644 -0.0674334 
0.5 -0.383231 -0.0883231 
0.445266 -0.5 -0.0738147 
0.5 -0.444702 -0.0944702 
0.5 -0.5 -0.1 
0.5 -0.5 -0.1 
0.5 -0.444702 -0.0944702 
0.5 -0.383231 -0.0883231 
0.5 -0.317644 -0.0817644 
0.5 -0.25 -0.075 
0.5 -0.182356 -0.0682356 
0.5 -0.116769 -0.0616769 
0.5 -0.0552982 -0.0555298 
0.5 0 -0.05 
0.5 -0.5 -0.0944702 
0.5 -0.442644 -0.0885288 
0.5 -0.379801 -0.0821074 
0.5 -0.313529 -0.0754115 
0.5 -0.245885 -0.0686471 
0.5 -0.178926 -0.0620199 
0.5 -0.114712 -0.0557356 
0.5 -0.0552982 -0.05 
0.5 -0.5 -0.0883231 
0.5 -0.441272 -0.0821074 
0.5 -0.377744 -0.0755487 
0.5 -0.311471 -0.0688529 
0.5 -0.244513 -0.0622256 
0.5 -0.178926 -0.0558728 
0.5 -0.116769 -0.05 
0.5 -0.5 -0.0817644 
0.5 -0.440586 -0.0754115 
0.5 -0.377058 -0.0688529 
0.5 -0.311471 -0.0622942 
0.5 -0.245885 -0.0559414 
0.5 -0.182356 -0.05 
0.5 -0.5 -0.075 
0.5 -0.440586 -0.0686471 
0.5 -0.377744 -0.0622256 
0.5 -0.313529 -0.0559414 
0.5 -0.25 -0.05 
0.5 -0.5 -0.0682356 
0.5 -0.441272 -0.0620199 
0.5 -0.379801 -0.0558728 
0.5 -0.317644 -0.05 
0.5 -0.5 -0.0616769 
0.5 -0.442644 -0.0557356 
0.5 -0.383231 -0.05 
0.5 -0.5 -0.0555298 
0.5 -0.444702 -0.05 
0.5 -0.5 -0.05 
0.5 -0.5 -0.05 
0.445257 -0.5 -0.0293449 
0.384186 -0.5 -0.0167866 
0.318845 -0.5 -0.0121193 
0.251289 -0.5 -0.0151376 
0.183578 -0.5 -0.0256358 
0.117768 -0.5 -0.0434085 
0.0559157 -0.5 -0.0682499 
7.95491e-05 -0.5 -0.0999545 
0.5 -0.5 -0.0555298 
0.443215 -0.5 -0.0346404 
0.380783 -0.5 -0.0219258 
0.314761 -0.5 -0.0171804 
0.247207 -0.5 -0.0201986 
0.180178 -0.5 -0.0307749 
0.115731 -0.5 -0.0487036 
0.0559242 -0.5 -0.0737793 
0.5 -0.5 -0.0616769 
0.441854 -0.5 -0.0406313 
0.378741 -0.5 -0.0278385 
0.312721 -0.5 -0.023093 
0.245849 -0.5 -0.0261893 
0.180184 -0.5 -0.0369217 
0.117782 -0.5 -0.0550847 
0.5 -0.5 -0.0682356 
0.441173 -0.5 -0.0471118 
0.378063 -0.5 -0.0343189 
0.312724 -0.5 -0.0296515 
0.247217 -0.5 -0.0329039 
0.183596 -0.5 -0.0438705 
0.5 -0.5 -0.075 
0.441175 -0.5 -0.0538761 
0.378746 -0.5 -0.0411613 
0.314772 -0.5 -0.03665 
0.251309 -0.5 -0.0401367 
0.5 -0.5 -0.0817644 
0.441857 -0.5 -0.0607186 
0.380792 -0.5 -0.0481599 
0.318863 -0.5 -0.0438828 
0.5 -0.5 -0.0883231 
0.443221 -0.5 -0.0674334 
0.384201 -0.5 -0.0551089 
0.5 -0.5 -0.0944702 
0.445266 -0.5 -0.0738147 
0.5 -0.5 -0.1 
-1.17961e-16 -0.5 -0.05 
8.79784e-06 -0.5 -0.0555248 
1.85778e-05 -0.5 -0.0616663 
2.90125e-05 -0.5 -0.068219 
3.97746e-05 -0.5 -0.0749773 
5.05366e-05 -0.5 -0.0817355 
6.09713e-05 -0.5 -0.0882882 
7.07513e-05 -0.5 -0.0944298 
7.95491e-05 -0.5 -0.0999545 
0.0558468 -0.444702 -0.0238146 
0.0579268 -0.442644 -0.0289001 
0.0593174 -0.441272 -0.034749 
0.060018 -0.440586 -0.0411557 
0.0600285 -0.440586 -0.0479148 
0.0593485 -0.441272 -0.0548206 
0.0579777 -0.442644 -0.0616675 
0.0559157 -0.444702 -0.0682499 
0.11771 -0.383231 -0.00511076 
0.121171 -0.379801 -0.0099036 
0.123251 -0.377744 -0.0156066 
0.123952 -0.377058 -0.0220141 
0.123271 -0.377744 -0.0289207 
0.12121 -0.379801 -0.0361207 
0.117768 -0.383231 -0.0434085 
0.183532 -0.317644 0.00611155 
0.187682 -0.313529 0.00146463 
0.189763 -0.311471 -0.00423914 
0.189773 -0.311471 -0.0107942 
0.187711 -0.313529 -0.017995 
0.183578 -0.317644 -0.0256358 
0.251254 -0.25 0.00985232 
0.255405 -0.245885 0.00520461 
0.256794 -0.244513 -0.000646663 
0.255423 -0.245885 -0.00749593 
0.251289 -0.25 -0.0151376 
0.31882 -0.182356 0.00611155 
0.32228 -0.178926 0.00131634 
0.322288 -0.178926 -0.00482914 
0.318845 -0.182356 -0.0121193 
0.384171 -0.116769 -0.00511076 
0.38625 -0.114712 -0.0102002 
0.384186 -0.116769 -0.0167866 
0.44525 -0.0552982 -0.0238146 
0.445257 -0.0552982 -0.0293449 
0.5 0 -0.05 
7.95491e-05 -0.5 -0.0999545 
0.0559157 -0.5 -0.0682499 
0.117768 -0.5 -0.0434085 
0.183578 -0.5 -0.0256358 
0.251289 -0.5 -0.0151376 
0.318845 -0.5 -0.0121193 
0.384186 -0.5 -0.0167866 
0.445257 -0.5 -0.0293449 
0.5 -0.5 -0.05 
7.07513e-05 -0.5 -0.0944298 
0.0579777 -0.5 -0.0616675 
0.12121 -0.5 -0.0361207 
0.187711 -0.5 -0.017995 
0.255423 -0.5 -0.00749593 
0.322288 -0.5 -0.00482914 
0.38625 -0.5 -0.0102002 
0.44525 -0.5 -0.0238146 
6.09713e-05 -0.5 -0.0882882 
0.0593485 -0.5 -0.0548206 
0.123271 -0.5 -0.0289207 
0.189773 -0.5 -0.0107942 
0.256794 -0.5 -0.000646663 
0.32228 -0.5 0.00131634 
0.384171 -0.5 -0.00511076 
5.05366e-05 -0.5 -0.0817355 
0.0600285 -0.5 -0.0479148 
0.123952 -0.5 -0.0220141 
0.189763 -0.5 -0.00423914 
0.255405 -0.5 0.00520461 
0.31882 -0.5 0.00611155 
3.97746e-05 -0.5 -0.0749773 
0.060018 -0.5 -0.0411557 
0.123251 -0.5 -0.0156066 
0.187682 -0.5 0.00146463 
0.251254 -0.5 0.00985232 
2.90125e-05 -0.5 -0.068219 
0.0593174 -0.5 -0.034749 
0.121171 -0.5 -0.0099036 
0.183532 -0.5 0.00611155 
1.85778e-05 -0.5 -0.0616663 
0.0579268 -0.5 -0.0289001 
0.11771 -0.5 -0.00511076 
8.79784e-06 -0.5 -0.0555248 
0.0558468 -0.5 -0.0238146 
-1.17961e-16 -0.5 -0.05 
-1.17961e-16 -0.5 -0.05 
0.0558468 -0.444702 -0.0238146 
0.11771 -0.383231 -0.00511076 
0.183532 -0.317644 0.00611155 
0.251254 -0.25 0.00985232 
0.31882 -0.182356 0.00611155 
0.384171 -0.116769 -0.00511076 
0.44525 -0.0552982 -0.0238146 
0.5 0 -0.05 
0.0558468 -0.5 -0.0238146 
0.115666 -0.442644 -0.00446499 
0.180125 -0.379801 0.00718783 
0.247166 -0.313529 0.0111439 
0.314732 -0.245885 0.00740309 
0.380764 -0.178926 -0.00403448 
0.443206 -0.114712 -0.0231688 
0.5 -0.0552982 -0.05 
0.11771 -0.5 -0.00511076 
0.180125 -0.441272 0.00718783 
0.245803 -0.377744 0.0115744 
0.312687 -0.311471 0.00804886 
0.37872 -0.244513 -0.00338871 
0.441844 -0.178926 -0.0227383 
0.5 -0.116769 -0.05 
0.183532 -0.5 0.00611155 
0.247166 -0.440586 0.0111439 
0.312687 -0.377058 0.00804886 
0.378039 -0.311471 -0.00317345 
0.441162 -0.245885 -0.0225231 
0.5 -0.182356 -0.05 
0.251254 -0.5 0.00985232 
0.314732 -0.440586 0.00740309 
0.37872 -0.377744 -0.00338871 
0.441162 -0.313529 -0.0225231 
0.5 -0.25 -0.05 
0.31882 -0.5 0.00611155 
0.380764 -0.441272 -0.00403448 
0.441844 -0.379801 -0.0227383 
0.5 -0.317644 -0.05 
0.384171 -0.5 -0.00511076 
0.443206 -0.442644 -0.0231688 
0.5 -0.383231 -0.05 
0.44525 -0.5 -0.0238146 
0.5 -0.444702 -0.05 
0.5 -0.5 -0.05 
-1.10318e-16 1.41177e-21 -0.05 
-1.24812e-16 -0.0552982 -0.05 
-1.355e-16 -0.116769 -0.05 
-1.42352e-16 -0.182356 -0.05 
-1.45335e-16 -0.25 -0.05 
-1.4442e-16 -0.317644 -0.05 
-1.39573e-16 -0.383231 -0.05 
-1.30764e-16 -0.444702 -0.05 
-1.17961e-16 -0.5 -0.05 
8.79784e-06 -0.0552982 -0.0555248 
9.12521e-06 -0.114712 -0.0557304 
9.34346e-06 -0.178926 -0.0558674 
9.45258e-06 -0.245885 -0.0559359 
9.45258e-06 -0.313529 -0.0559359 
9.34346e-06 -0.379801 -0.0558674 
9.12521e-06 -0.442644 -0.0557304 
8.79784e-06 -0.5 -0.0555248 
1.85778e-05 -0.116769 -0.0616663 
1.91234e-05 -0.178926 -0.062009 
1.94508e-05 -0.244513 -0.0622145 
1.95599e-05 -0.311471 -0.0622831 
1.94508e-05 -0.377744 -0.0622145 
1.91234e-05 -0.441272 -0.062009 
1.85778e-05 -0.5 -0.0616663 
2.90125e-05 -0.182356 -0.068219 
2.96672e-05 -0.245885 -0.0686302 
2.99946e-05 -0.311471 -0.0688357 
2.99946e-05 -0.377058 -0.0688357 
2.96672e-05 -0.440586 -0.0686302 
2.90125e-05 -0.5 -0.068219 
3.97746e-05 -0.25 -0.0749773 
4.04293e-05 -0.313529 -0.0753884 
4.06475e-05 -0.377744 -0.0755255 
4.04293e-05 -0.440586 -0.0753884 
3.97746e-05 -0.5 -0.0749773 
5.05366e-05 -0.317644 -0.0817355 
5.10822e-05 -0.379801 -0.0820782 
5.10822e-05 -0.441272 -0.0820782 
5.05366e-05 -0.5 -0.0817355 
6.09713e-05 -0.383231 -0.0882882 
6.12987e-05 -0.442644 -0.0884938 
[...]
<PointData>
<DataArray type="Float64" Name="detJacobian" NumberOfComponents="1" format="ascii">
0.742007
0.821488
0.874618
0.899554
0.896607
0.867931
0.817178
0.74901
0.668367
0.811122
0.890095
0.939911
0.959741
0.95101
0.917043
0.862678
0.793703
0.863002
0.937239
0.98057
0.993526
0.978969
0.941714
0.88807
0.891338
0.958016
0.993492
1
0.982177
0.94663
0.892988
0.950884
0.97915
0.982098
0.966473
0.86764
0.917402
0.941476
0.94663
0.817706
0.86228
0.88807
0.748447
0.793703
0.668367
0.696582
0.774819
0.83137
0.86376
0.871305
0.854812
0.816251
0.758332
0.68398
0.770415
0.850813
0.906386
0.935457
0.938239
0.916484
0.873121
0.811816
0.829018
0.906959
0.95793
0.981389
0.978725
0.952891
0.908005
0.865259
0.937639
0.982262
1
0.993678
0.967667
0.875499
0.940837
0.979317
0.9935
0.98787
0.85907
0.917667
0.952358
0.967636
0.818024
0.872236
0.907946
0.757101
0.811734
0.683885
0.610937
0.728771
0.817809
0.873181
0.891963
0.873181
0.817809
0.728771
0.610937
0.728771
0.840001
0.917402
0.957077
0.957077
0.917402
0.840001
0.728771
0.817809
0.917402
0.979107
1
0.979107
0.917402
0.817809
0.873181
0.957077
1
1
0.957077
0.873181
0.891963
0.957077
0.979107
0.957077
0.891963
0.873181
0.917402
0.917402
0.873181
0.817809
0.840001
0.817809
0.728771
0.728771
0.610937
0.497729
0.614415
0.631488
0.586596
0.51396
0.444377
0.405221
0.420437
0.51055
0.593862
0.700216
0.72639
0.708318
0.67851
0.666051
0.6966
0.792393
0.666513
0.758331
0.790205
0.796357
0.807584
0.851258
0.951326
0.711693
0.78557
0.820542
0.849119
0.900385
1
0.727008
0.780336
0.816602
0.866603
0.957712
0.711662
0.742632
0.779186
0.85041
0.666454
0.674055
0.71069
0.593781
0.5778
0.497634
0.508265
0.606212
0.680215
0.726232
0.741839
0.726229
0.680208
0.606203
0.508254
0.623373
0.710444
0.769438
0.797124
0.791885
0.753722
0.68425
0.586703
0.638104
0.733911
0.798315
0.828893
0.824837
0.786955
0.717671
0.590409
0.712838
0.801346
0.854316
0.871748
0.855259
0.51479
0.680003
0.809584
0.902723
0.960227
0.442298
0.664731
0.850635
1
0.400528
0.692905
0.948663
0.413631
0.786966
0.502331
0.512166
0.590019
0.720275
0.857054
0.961144
1
0.947741
0.785152
0.499685
0.610791
0.688062
0.789887
0.873722
0.903687
0.850568
0.691819
0.411559
0.685299
0.757878
0.827971
0.856366
0.810515
0.664539
0.399224
0.731629
0.796221
0.832091
0.803362
0.680818
0.441913
0.747346
0.801465
0.801435
0.714709
0.515406
0.731636
0.773611
0.736813
0.592031
0.685312
0.714281
0.640662
0.610809
0.626724
0.512187
0.697215
0.777147
0.834487
0.866804
0.873631
0.856112
0.816642
0.758383
0.684641
0.768619
0.850795
0.907261
0.936475
0.938927
0.916744
0.873278
0.812584
0.825879
0.905679
0.957656
0.981475
0.978855
0.953146
0.908856
0.861849
0.936086
0.981753
1
0.994019
0.968576
0.872682
0.939739
0.979184
0.993915
0.988809
0.857387
0.917397
0.952832
0.968576
0.817612
0.872753
0.908856
0.757643
0.812584
0.684641
0.610937
0.728771
0.817809
0.873181
0.891963
0.873181
0.817809
0.728771
0.610937
0.728771
0.840001
0.917402
0.957077
0.957077
0.917402
0.840001
0.728771
0.817809
0.917402
0.979107
1
0.979107
0.917402
0.817809
0.873181
0.957077
1
1
0.957077
0.873181
0.891963
0.957077
0.979107
0.957077
0.891963
0.873181
0.917402
0.917402
0.873181
0.817809
0.840001
0.817809
0.728771
0.728771
0.610937
0.678269
0.75862
0.817929
0.853469
0.864407
0.851439
0.816433
0.76196
0.690726
0.750907
0.834624
0.894
0.927153
0.934156
0.916628
0.877325
0.819651
0.810625
0.892879
0.948485
0.97672
0.978812
0.957511
0.916643
0.849894
0.927314
0.977124
1
0.998542
0.976801
0.86456
0.935345
0.979197
0.998428
0.997181
0.853343
0.917395
0.957168
0.976801
0.817575
0.876752
0.916643
0.761154
0.819651
0.690726
0.677594
0.760269
0.820918
0.856789
0.867202
0.853142
0.816877
0.761447
0.690015
0.748608
0.834609
0.895235
0.928686
0.935263
0.916921
0.876837
0.818848
0.807533
0.89199
0.94874
0.977225
0.978957
0.957063
0.915778
0.846852
0.926274
0.977019
1
0.998146
0.975902
0.862209
0.934624
0.979053
0.998098
0.996278
0.851998
0.917108
0.956917
0.975921
0.817144
0.87659
0.915813
0.761092
0.818897
0.690072
0.507636
0.790485
0.950399
1
0.958571
0.852052
0.713041
0.580787
0.501194
0.418009
0.695276
0.851016
0.901167
0.868341
0.781804
0.677479
0.597943
0.403526
0.66554
0.808232
0.850866
0.819376
0.746358
0.671061
0.443584
0.678964
0.798022
0.823351
0.784216
0.716539
0.514167
0.709809
0.792926
0.789449
0.731971
0.58783
0.728903
0.762056
0.716554
0.633686
0.703641
0.671091
0.617409
0.597984
0.501241
0.697286
0.777218
0.834552
0.866858
0.873669
0.856132
0.816643
0.758367
0.684613
0.768687
0.850858
0.907315
0.936513
0.938947
0.916744
0.87326
0.812551
0.825939
0.905731
0.957694
0.981495
0.978856
0.953126
0.90882
0.861897
0.936122
0.981773
1
0.993999
0.968537
0.872716
0.939758
0.979184
0.993894
0.98877
0.857404
0.917397
0.952812
0.968537
0.817612
0.872735
0.90882
0.757627
0.812551
0.684613
0.610937
0.728771
0.817809
0.873181
0.891963
0.873181
0.817809
0.728771
0.610937
0.728771
0.840001
0.917402
0.957077
0.957077
0.917402
0.840001
0.728771
0.817809
0.917402
0.979107
1
0.979107
0.917402
0.817809
0.873181
0.957077
1
1
0.957077
0.873181
0.891963
0.957077
0.979107
0.957077
0.891963
0.873181
0.917402
0.917402
0.873181
0.817809
0.840001
0.817809
0.728771
0.728771
0.610937
0.693234
0.822331
0.919411
0.979609
1
0.979609
0.919411
0.822331
0.693234
0.75845
0.873135
0.952833
0.993602
0.99347
0.952437
0.872472
0.757519
0.80421
0.903156
0.964596
0.985572
0.965098
0.904156
0.8057
0.829038
0.910362
0.952355
0.953027
0.912358
0.832294
0.831652
0.893318
0.9147
0.894719
0.834291
0.8114
0.851587
0.85155
0.811077
0.76866
0.786098
0.764564
0.705178
0.699561
0.624434
0.678191
0.758546
0.817864
0.853418
0.864373
0.851423
0.816433
0.761972
0.690745
0.750836
0.834561
0.893949
0.927118
0.934139
0.916627
0.877338
0.819674
0.810565
0.89283
0.948451
0.976703
0.978811
0.957526
0.916667
0.849848
0.927282
0.977107
1
0.998557
0.976827
0.864529
0.935329
0.979197
0.998443
0.997207
0.853328
0.917395
0.957183
0.976827
0.817574
0.876765
0.916667
0.761166
0.819674
0.690745
0.51055
0.420437
0.405221
0.444377
0.51396
0.586596
0.631488
0.614415
0.497729
0.792393
0.6966
0.666051
0.67851
0.708318
0.72639
0.700216
0.593862
0.951326
0.851258
0.807584
0.796357
0.790205
0.758331
0.666513
1
0.900385
0.849119
0.820542
0.78557
0.711693
0.957712
0.866603
0.816602
0.780336
0.727008
0.85041
0.779186
0.742632
0.711662
0.71069
0.674055
0.666454
0.5778
0.593781
0.497634
0.610937
0.728771
0.817809
0.873181
0.891963
0.873181
0.817809
0.728771
0.610937
0.728771
0.840001
0.917402
0.957077
0.957077
0.917402
0.840001
0.728771
0.817809
0.917402
0.979107
1
0.979107
0.917402
0.817809
0.873181
0.957077
1
1
0.957077
0.873181
0.891963
0.957077
0.979107
0.957077
0.891963
0.873181
0.917402
0.917402
0.873181
0.817809
0.840001
0.817809
0.728771
0.728771
0.610937
0.499685
0.785152
0.947741
1
0.961144
0.857054
0.720275
0.590019
0.512166
0.411559
0.691819
0.850568
0.903687
0.873722
0.789887
0.688062
0.610791
0.399224
0.664539
0.810515
0.856366
0.827971
0.757878
0.685299
0.441913
0.680818
0.803362
0.832091
0.796221
0.731629
0.515406
0.714709
0.801435
0.801465
0.747346
0.592031
0.736813
0.773611
0.731636
0.640662
0.714281
0.685312
0.626724
0.610809
0.512187
0.624531
0.705273
0.768747
0.811474
0.831709
0.829077
0.804232
0.758458
0.693233
0.699653
0.786184
0.851661
0.893377
0.910403
0.903181
0.873145
0.82233
0.764645
0.851622
0.914759
0.952397
0.964622
0.952844
0.919411
0.811145
0.894776
0.953069
0.985599
0.993613
0.979609
0.834344
0.912398
0.965124
0.993481
1
0.832331
0.90418
0.952448
0.979609
0.805722
0.872483
0.919411
0.757527
0.82233
0.693233
0.677673
0.760345
0.820984
0.856841
0.867237
0.85316
0.816878
0.761435
0.689995
0.748679
0.834673
0.895286
0.928721
0.93528
0.916922
0.876823
0.818826
0.807592
0.892039
0.948774
0.977242
0.978957
0.957048
0.915753
0.846897
0.926306
0.977036
1
0.998131
0.975876
0.862239
0.93464
0.979053
0.998083
0.996251
0.852013
0.917108
0.956903
0.975894
0.817144
0.876577
0.915788
0.76108
0.818875
0.690053
0.512049
0.589908
0.720184
0.856992
0.961114
1
0.947764
0.785187
0.499719
0.610654
0.687935
0.789783
0.873645
0.903637
0.850542
0.691807
0.411548
0.685146
0.757741
0.827858
0.856278
0.81045
0.66449
0.399179
0.731467
0.796079
0.831974
0.803267
0.680741
0.441843
0.74718
0.801324
0.801318
0.714612
0.515321
0.731474
0.773476
0.736702
0.591936
0.685159
0.714158
0.640562
0.610672
0.626618
0.51207
0.502334
0.413596
0.400467
0.442223
0.514712
0.590333
0.638033
0.623305
0.508193
0.78698
0.69288
0.664679
0.679935
0.712763
0.733833
0.710365
0.606128
0.948675
0.850608
0.80953
0.801275
0.798235
0.769351
0.680121
1
0.902685
0.854252
0.828813
0.797033
0.726132
0.960208
0.871694
0.82476
0.791793
0.741737
0.855218
0.786885
0.753633
0.726129
0.717611
0.684168
0.680114
0.586631
0.606119
0.508182
0.678347
0.758695
0.817994
0.85352
0.864442
0.851456
0.816434
0.761948
0.690707
0.750978
0.834687
0.89405
0.927187
0.934173
0.916628
0.877311
0.819629
0.810684
0.892927
0.948519
0.976737
0.978812
0.957496
0.916618
0.849939
0.927347
0.977141
1
0.998527
0.976775
0.86459
0.93536
0.979197
0.998413
0.997154
0.853357
0.917395
0.957154
0.976775
0.817575
0.876738
0.916618
0.761142
0.819629
0.690707
0.647367
0.721666
0.784631
0.828246
0.847973
0.842159
0.811711
0.760003
0.692989
0.72814
0.807205
0.869811
0.909447
0.923135
0.910866
0.875373
0.822172
0.790043
0.870293
0.929947
0.96432
0.972246
0.955628
0.919334
0.829906
0.908555
0.963758
0.992885
0.996808
0.979588
0.846356
0.921471
0.971792
0.996933
1
0.839459
0.909962
0.956002
0.979588
0.810365
0.875998
0.919334
0.760882
0.822172
0.692989
0.510094
0.792244
0.951319
1
0.957626
0.850195
0.71036
0.577434
0.497389
0.419583
0.696063
0.850885
0.900058
0.86625
0.778786
0.673652
0.593487
0.404176
0.665326
0.807036
0.848645
0.81615
0.742205
0.666124
0.443322
0.677762
0.795783
0.820055
0.779902
0.711308
0.513032
0.707664
0.789703
0.785145
0.726647
0.58588
0.725889
0.757934
0.711339
0.631007
0.699862
0.666182
0.614119
0.593568
0.497484
0.610937
0.728771
0.817809
0.873181
0.891963
0.873181
0.817809
0.728771
0.610937
0.728771
0.840001
0.917402
0.957077
0.957077
0.917402
0.840001
0.728771
0.817809
0.917402
0.979107
1
0.979107
0.917402
0.817809
0.873181
0.957077
1
1
0.957077
0.873181
0.891963
0.957077
0.979107
0.957077
0.891963
0.873181
0.917402
0.917402
0.873181
0.817809
0.840001
0.817809
0.728771
0.728771
0.610937
0.696515
0.778775
0.837451
0.870096
0.876395
0.857784
0.817057
0.757848
0.683921
0.766267
0.85074
0.908464
0.93798
0.940009
0.917017
0.872777
0.811776
0.822732
0.904753
0.957885
0.981963
0.978991
0.952693
0.907992
0.858764
0.935022
0.98164
1
0.993629
0.967685
0.870308
0.939016
0.97905
0.9936
0.98792
0.856043
0.917127
0.952603
0.967716
0.817203
0.87262
0.908051
0.757614
0.811858
0.684016
0.508083
0.605996
0.679972
0.725972
0.741574
0.725969
0.679965
0.605987
0.508073
0.623172
0.710204
0.76917
0.796839
0.791595
0.753439
0.683985
0.586467
0.637819
0.733608
0.798006
0.828591
0.824554
0.786703
0.717462
0.590017
0.712471
0.801017
0.854038
0.871534
0.855121
0.514305
0.679604
0.809285
0.902538
0.960169
0.441764
0.664361
0.850443
1
0.400015
0.692647
0.948674
0.413228
0.786919
0.502141
0.499336
0.410814
0.398276
0.440927
0.51451
0.591307
0.640136
0.626352
0.511851
0.785068
0.691343
0.663856
0.680081
0.71403
0.736253
0.713838
0.610408
0.947762
0.850214
0.809963
0.802752
0.800863
0.773114
0.684862
1
0.903344
0.85585
0.831532
0.800937
0.731155
0.961036
0.873325
0.827447
0.795684
0.746854
0.856798
0.789421
0.757354
0.731148
0.719888
0.687572
0.684848
0.589582
0.61039
0.51183
0.610937
0.728771
0.817809
0.873181
0.891963
0.873181
0.817809
0.728771
0.610937
0.728771
0.840001
0.917402
0.957077
0.957077
0.917402
0.840001
0.728771
0.817809
0.917402
0.979107
1
0.979107
0.917402
0.817809
0.873181
0.957077
1
1
0.957077
0.873181
0.891963
0.957077
0.979107
0.957077
0.891963
0.873181
0.917402
0.917402
0.873181
0.817809
0.840001
0.817809
0.728771
0.728771
0.610937
0.677567
0.756239
0.814761
0.850375
0.862033
0.850097
0.816014
0.761907
0.690102
0.752621
0.834578
0.893071
0.926089
0.933432
0.916348
0.877175
0.818931
0.813689
0.894101
0.948717
0.976606
0.978671
0.957274
0.91585
0.853244
0.928828
0.977612
1
0.998228
0.975959
0.86734
0.936429
0.97934
0.99805
0.996317
0.855018
0.917683
0.95674
0.975941
0.81801
0.876286
0.915814
0.760663
0.818882
0.690045
0.722659
0.792867
0.847115
0.878752
0.884341
0.863284
0.817666
0.752325
0.675172
0.802427
0.873269
0.923766
0.948676
0.946149
0.9174
0.866696
0.801603
0.857428
0.925968
0.970809
0.988505
0.979165
0.946265
0.896771
0.885565
0.949829
0.988405
1
0.987081
0.955818
0.886817
0.945875
0.978921
0.987171
0.975825
0.862907
0.916916
0.946535
0.955818
0.816951
0.867148
0.896771
0.752962
0.801603
0.675172
0.499299
0.410818
0.398311
0.440986
0.514586
0.591394
0.64023
0.626455
0.511964
0.785031
0.691351
0.663899
0.680151
0.71412
0.736358
0.713956
0.610541
0.947739
0.850236
0.810022
0.80284
0.800974
0.773244
0.685009
1
0.903389
0.855933
0.831643
0.801073
0.731312
0.961064
0.873397
0.827555
0.79582
0.747014
0.856857
0.78952
0.757486
0.731305
0.719975
0.687693
0.684996
0.589689
0.610523
0.511943
0.677489
0.756164
0.814697
0.850324
0.861999
0.85008
0.816013
0.761919
0.690122
0.752549
0.834515
0.89302
0.926054
0.933415
0.916347
0.877189
0.818954
0.813628
0.894052
0.948683
0.976589
0.978671
0.957289
0.915875
0.853198
0.928795
0.977595
1
0.998244
0.975986
0.867309
0.936413
0.97934
0.998066
0.996344
0.855003
0.917683
0.956755
0.975967
0.81801
0.876299
0.915839
0.760675
0.818905
0.690064
0.501024
0.597741
0.670834
0.716297
0.731723
0.716312
0.670864
0.597781
0.501071
0.580564
0.677231
0.746093
0.783945
0.789183
0.761807
0.703417
0.61722
0.712843
0.781568
0.81911
0.823067
0.792635
0.728616
0.633413
0.851922
0.868139
0.850602
0.797708
0.709457
0.58745
0.958516
0.900991
0.807945
0.678577
0.513692
1
0.850829
0.665177
0.443056
0.950407
0.695018
0.403014
0.790432
0.417602
0.507438
0.510182
0.792292
0.951338
1
0.957614
0.850174
0.710331
0.577394
0.497327
0.419688
0.696125
0.850914
0.900063
0.866236
0.778757
0.673604
0.593415
0.40428
0.665384
0.807059
0.848639
0.81612
0.742153
0.666045
0.443408
0.677801
0.795786
0.820027
0.779846
0.711225
0.513088
0.707675
0.789677
0.785089
0.726562
0.5859
0.725868
0.757879
0.711256
0.630991
0.69981
0.666103
0.614073
0.593497
0.497422
0.678269
0.75862
0.817929
0.853469
0.864407
0.851439
0.816433
0.76196
0.690726
0.750907
0.834624
0.894
0.927153
0.934156
0.916628
0.877325
0.819651
0.810625
0.892879
0.948485
0.97672
0.978812
0.957511
0.916643
0.849894
0.927314
0.977124
1
0.998542
0.976801
0.86456
0.935345
0.979197
0.998428
0.997181
0.853343
0.917395
0.957168
0.976801
0.817575
0.876752
0.916643
0.761154
0.819651
0.690726
0.501208
0.59796
0.671079
0.716558
0.73199
0.716573
0.671109
0.598
0.501256
0.580787
0.67748
0.74636
0.784218
0.789452
0.762061
0.703646
0.617414
0.713037
0.781797
0.819366
0.823339
0.792912
0.728888
0.63367
0.852051
0.86833
0.850845
0.797993
0.709772
0.587787
0.958572
0.901149
0.808196
0.678911
0.514098
1
0.850985
0.66548
0.443496
0.950391
0.695224
0.403431
0.790457
0.417923
0.507577
0.497787
0.614457
0.631499
0.586568
0.513894
0.444281
0.405107
0.420324
0.510459
0.593929
0.700263
0.726405
0.7083
0.678463
0.665985
0.696532
0.792344
0.666587
0.758381
0.790225
0.796348
0.807556
0.851224
0.951307
0.711771
0.78562
0.820564
0.849119
0.900376
1
0.727088
0.780386
0.816626
0.866613
0.957723
0.71174
0.742679
0.779211
0.850427
0.666528
0.674097
0.710714
0.593848
0.577835
0.497692
</DataArray>
</PointData>
</Piece>
</UnstructuredGrid>
</VTKFile>
