<VTKFile type="UnstructuredGrid">
<UnstructuredGrid>
<Piece NumberOfPoints="45" NumberOfCells="64">
<Points>
<DataArray type="Float64" Name="coordinates" NumberOfComponents="3" format="ascii">
7.95491e-05 -0.5 -0.0999545 
0.0559157 -0.5 -0.0682499 
0.117768 -0.5 -0.0434085 
0.183578 -0.5 -0.0256358 
0.251289 -0.5 -0.0151376 
0.318845 -0.5 -0.0121193 
0.384186 -0.5 -0.0167866 
0.445257 -0.5 -0.0293449 
0.5 -0.5 -0.05 
7.07513e-05 -0.5 -0.0944298 
0.0579777 -0.5 -0.0616675 
0.12121 -0.5 -0.0361207 
0.187711 -0.5 -0.017995 
0.255423 -0.5 -0.00749593 
0.322288 -0.5 -0.00482914 
0.38625 -0.5 -0.0102002 
0.44525 -0.5 -0.0238146 
6.09713e-05 -0.5 -0.0882882 
0.0593485 -0.5 -0.0548206 
0.123271 -0.5 -0.0289207 
0.189773 -0.5 -0.0107942 
0.256794 -0.5 -0.000646663 
0.32228 -0.5 0.00131634 
0.384171 -0.5 -0.00511076 
5.05366e-05 -0.5 -0.0817355 
0.0600285 -0.5 -0.0479148 
0.123952 -0.5 -0.0220141 
0.189763 -0.5 -0.00423914 
0.255405 -0.5 0.00520461 
0.31882 -0.5 0.00611155 
3.97746e-05 -0.5 -0.0749773 
0.060018 -0.5 -0.0411557 
0.123251 -0.5 -0.0156066 
0.187682 -0.5 0.00146463 
0.251254 -0.5 0.00985232 
2.90125e-05 -0.5 -0.068219 
0.0593174 -0.5 -0.034749 
0.121171 -0.5 -0.0099036 
0.183532 -0.5 0.00611155 
1.85778e-05 -0.5 -0.0616663 
0.0579268 -0.5 -0.0289001 
0.11771 -0.5 -0.00511076 
8.79784e-06 -0.5 -0.0555248 
0.0558468 -0.5 -0.0238146 
-1.17961e-16 -0.5 -0.05 
</DataArray>
</Points>
<Cells>
<DataArray type="Int32" Name="connectivity" format="ascii">
44 43 42
43 41 40
42 40 39
41 38 37
40 37 36
39 36 35
38 34 33
37 33 32
36 32 31
35 31 30
34 29 28
33 28 27
32 27 26
31 26 25
30 25 24
29 23 22
28 22 21
27 21 20
26 20 19
25 19 18
24 18 17
23 16 15
22 15 14
21 14 13
20 13 12
19 12 11
18 11 10
17 10 9
16 8 7
15 7 6
14 6 5
13 5 4
12 4 3
11 3 2
10 2 1
9 1 0
40 43 42
37 41 40
36 40 39
33 38 37
32 37 36
31 36 35
28 34 33
27 33 32
26 32 31
25 31 30
22 29 28
21 28 27
20 27 26
19 26 25
18 25 24
15 23 22
14 22 21
13 21 20
12 20 19
11 19 18
10 18 17
7 16 15
6 15 14
5 14 13
4 13 12
3 12 11
2 11 10
1 10 9
</DataArray>
<DataArray type="Int32" Name="offsets" format="ascii">
3
6
9
12
15
18
21
24
27
30
33
36
39
42
45
48
51
54
57
60
63
66
69
72
75
78
81
84
87
90
93
96
99
102
105
108
111
114
117
120
123
126
129
132
135
138
141
144
147
150
153
156
159
162
165
168
171
174
177
180
183
186
189
192
</DataArray>
<DataArray type="UInt8" Name="types" format="ascii">
5
5
5
5
5
5
5
5
5
5
5
5
5
5
5
5
5
5
5
5
5
5
5
5
5
5
5
5
5
5
5
5
5
5
5
5
5
5
5
5
5
5
5
5
5
5
5
5
5
5
5
5
5
5
5
5
5
5
5
5
5
5
5
5
</DataArray>
</Cells>
<PointData>
<DataArray type="Float64" Name="detJacobian" NumberOfComponents="1" format="ascii">
0
0
0
0
0
0
0
0
0
0
0
0
0
0
0
0
0
0
0
0
0
0
0
0
0
0
0
0
0
0
0
0
0
0
0
0
0
0
0
0
0
0
0
0
0
</DataArray>
</PointData>
</Piece>
</UnstructuredGrid>
</VTKFile>
