<VTKFile type="UnstructuredGrid">
<UnstructuredGrid>
<Piece NumberOfPoints="5400" NumberOfCells="7680">
<Points>
<DataArray type="Float64" Name="coordinates" NumberOfComponents="3" format="ascii">
-7.95491e-05 0 -4.54566e-05 
-0.0634983 0.0625 -0.0438297 
-0.126652 0.125 -0.0751025 
-0.18954 0.1875 -0.0938639 
-0.252163 0.25 -0.100114 
-0.31452 0.3125 -0.0938526 
-0.376612 0.375 -0.0750798 
-0.438439 0.4375 -0.0437956 
-0.5 0.5 0 
-0.0634983 0 -0.0438297 
-0.126652 0.0625 -0.0751025 
-0.18954 0.125 -0.0938639 
-0.252163 0.1875 -0.100114 
-0.31452 0.25 -0.0938526 
-0.376612 0.3125 -0.0750798 
-0.438439 0.375 -0.0437956 
-0.5 0.4375 0 
-0.126652 0 -0.0751025 
-0.18954 0.0625 -0.0938639 
-0.252163 0.125 -0.100114 
-0.31452 0.1875 -0.0938526 
-0.376612 0.25 -0.0750798 
-0.438439 0.3125 -0.0437956 
-0.5 0.375 0 
-0.18954 0 -0.0938639 
-0.252163 0.0625 -0.100114 
-0.31452 0.125 -0.0938526 
-0.376612 0.1875 -0.0750798 
-0.438439 0.25 -0.0437956 
-0.5 0.3125 0 
-0.252163 0 -0.100114 
-0.31452 0.0625 -0.0938526 
-0.376612 0.125 -0.0750798 
-0.438439 0.1875 -0.0437956 
-0.5 0.25 0 
-0.31452 0 -0.0938526 
-0.376612 0.0625 -0.0750798 
-0.438439 0.125 -0.0437956 
-0.5 0.1875 0 
-0.376612 0 -0.0750798 
-0.438439 0.0625 -0.0437956 
-0.5 0.125 0 
-0.438439 0 -0.0437956 
-0.5 0.0625 0 
-0.5 0 0 
-0.5 0.5 0 
-0.438439 0.4375 -0.0437956 
-0.376612 0.375 -0.0750798 
-0.31452 0.3125 -0.0938526 
-0.252163 0.25 -0.100114 
-0.18954 0.1875 -0.0938639 
-0.126652 0.125 -0.0751025 
-0.0634983 0.0625 -0.0438297 
-7.95491e-05 0 -4.54566e-05 
-0.438439 0.5 -0.0437956 
-0.376612 0.4375 -0.0750798 
-0.31452 0.375 -0.0938526 
-0.252163 0.3125 -0.100114 
-0.18954 0.25 -0.0938639 
-0.126652 0.1875 -0.0751025 
-0.0634983 0.125 -0.0438297 
-7.95491e-05 0.0625 -4.54566e-05 
-0.376612 0.5 -0.0750798 
-0.31452 0.4375 -0.0938526 
-0.252163 0.375 -0.100114 
-0.18954 0.3125 -0.0938639 
-0.126652 0.25 -0.0751025 
-0.0634983 0.1875 -0.0438297 
-7.95491e-05 0.125 -4.54566e-05 
-0.31452 0.5 -0.0938526 
-0.252163 0.4375 -0.100114 
-0.18954 0.375 -0.0938639 
-0.126652 0.3125 -0.0751025 
-0.0634983 0.25 -0.0438297 
-7.95491e-05 0.1875 -4.54566e-05 
-0.252163 0.5 -0.100114 
-0.18954 0.4375 -0.0938639 
-0.126652 0.375 -0.0751025 
-0.0634983 0.3125 -0.0438297 
-7.95491e-05 0.25 -4.54566e-05 
-0.18954 0.5 -0.0938639 
-0.126652 0.4375 -0.0751025 
-0.0634983 0.375 -0.0438297 
-7.95491e-05 0.3125 -4.54566e-05 
-0.126652 0.5 -0.0751025 
-0.0634983 0.4375 -0.0438297 
-7.95491e-05 0.375 -4.54566e-05 
-0.0634983 0.5 -0.0438297 
-7.95491e-05 0.4375 -4.54566e-05 
-7.95491e-05 0.5 -4.54566e-05 
0.5 0 0 
0.438397 0.0625 0.0438014 
0.376534 0.125 0.0750864 
0.314413 0.1875 0.0938552 
0.252033 0.25 0.100108 
0.189393 0.3125 0.0938438 
0.126495 0.375 0.0750637 
0.063337 0.4375 0.0437673 
-7.95491e-05 0.5 -4.54566e-05 
0.438397 0 0.0438014 
0.376534 0.0625 0.0750864 
0.314413 0.125 0.0938552 
0.252033 0.1875 0.100108 
0.189393 0.25 0.0938438 
0.126495 0.3125 0.0750637 
0.063337 0.375 0.0437673 
-7.95491e-05 0.4375 -4.54566e-05 
0.376534 0 0.0750864 
0.314413 0.0625 0.0938552 
0.252033 0.125 0.100108 
0.189393 0.1875 0.0938438 
0.126495 0.25 0.0750637 
0.063337 0.3125 0.0437673 
-7.95491e-05 0.375 -4.54566e-05 
0.314413 0 0.0938552 
0.252033 0.0625 0.100108 
0.189393 0.125 0.0938438 
0.126495 0.1875 0.0750637 
0.063337 0.25 0.0437673 
-7.95491e-05 0.3125 -4.54566e-05 
0.252033 0 0.100108 
0.189393 0.0625 0.0938438 
0.126495 0.125 0.0750637 
0.063337 0.1875 0.0437673 
-7.95491e-05 0.25 -4.54566e-05 
0.189393 0 0.0938438 
0.126495 0.0625 0.0750637 
0.063337 0.125 0.0437673 
-7.95491e-05 0.1875 -4.54566e-05 
0.126495 0 0.0750637 
0.063337 0.0625 0.0437673 
-7.95491e-05 0.125 -4.54566e-05 
0.063337 0 0.0437673 
-7.95491e-05 0.0625 -4.54566e-05 
-7.95491e-05 0 -4.54566e-05 
-7.95491e-05 0.5 -4.54566e-05 
0.063337 0.4375 0.0437673 
0.126495 0.375 0.0750637 
0.189393 0.3125 0.0938438 
0.252033 0.25 0.100108 
0.314413 0.1875 0.0938552 
0.376534 0.125 0.0750864 
0.438397 0.0625 0.0438014 
0.5 0 0 
0.063337 0.5 0.0437673 
0.126495 0.4375 0.0750637 
0.189393 0.375 0.0938438 
0.252033 0.3125 0.100108 
0.314413 0.25 0.0938552 
0.376534 0.1875 0.0750864 
0.438397 0.125 0.0438014 
0.5 0.0625 0 
0.126495 0.5 0.0750637 
0.189393 0.4375 0.0938438 
0.252033 0.375 0.100108 
0.314413 0.3125 0.0938552 
0.376534 0.25 0.0750864 
0.438397 0.1875 0.0438014 
0.5 0.125 0 
0.189393 0.5 0.0938438 
0.252033 0.4375 0.100108 
0.314413 0.375 0.0938552 
0.376534 0.3125 0.0750864 
0.438397 0.25 0.0438014 
0.5 0.1875 0 
0.252033 0.5 0.100108 
0.314413 0.4375 0.0938552 
0.376534 0.375 0.0750864 
0.438397 0.3125 0.0438014 
0.5 0.25 0 
0.314413 0.5 0.0938552 
0.376534 0.4375 0.0750864 
0.438397 0.375 0.0438014 
0.5 0.3125 0 
0.376534 0.5 0.0750864 
0.438397 0.4375 0.0438014 
0.5 0.375 0 
0.438397 0.5 0.0438014 
0.5 0.4375 0 
0.5 0.5 0 
-0.5 -0.5 0 
-0.438439 -0.4375 -0.0437956 
-0.376612 -0.375 -0.0750798 
-0.31452 -0.3125 -0.0938526 
-0.252163 -0.25 -0.100114 
-0.18954 -0.1875 -0.0938639 
-0.126652 -0.125 -0.0751025 
-0.0634983 -0.0625 -0.0438297 
-7.95491e-05 0 -4.54566e-05 
-0.5 -0.4375 0 
-0.438439 -0.375 -0.0437956 
-0.376612 -0.3125 -0.0750798 
-0.31452 -0.25 -0.0938526 
-0.252163 -0.1875 -0.100114 
-0.18954 -0.125 -0.0938639 
-0.126652 -0.0625 -0.0751025 
-0.0634983 0 -0.0438297 
-0.5 -0.375 0 
-0.438439 -0.3125 -0.0437956 
-0.376612 -0.25 -0.0750798 
-0.31452 -0.1875 -0.0938526 
-0.252163 -0.125 -0.100114 
-0.18954 -0.0625 -0.0938639 
-0.126652 0 -0.0751025 
-0.5 -0.3125 0 
-0.438439 -0.25 -0.0437956 
-0.376612 -0.1875 -0.0750798 
-0.31452 -0.125 -0.0938526 
-0.252163 -0.0625 -0.100114 
-0.18954 0 -0.0938639 
-0.5 -0.25 0 
-0.438439 -0.1875 -0.0437956 
-0.376612 -0.125 -0.0750798 
-0.31452 -0.0625 -0.0938526 
-0.252163 0 -0.100114 
-0.5 -0.1875 0 
-0.438439 -0.125 -0.0437956 
-0.376612 -0.0625 -0.0750798 
-0.31452 0 -0.0938526 
-0.5 -0.125 0 
-0.438439 -0.0625 -0.0437956 
-0.376612 0 -0.0750798 
-0.5 -0.0625 0 
-0.438439 0 -0.0437956 
-0.5 0 0 
-7.95491e-05 0 -4.54566e-05 
-0.0634983 -0.0625 -0.0438297 
-0.126652 -0.125 -0.0751025 
-0.18954 -0.1875 -0.0938639 
-0.252163 -0.25 -0.100114 
-0.31452 -0.3125 -0.0938526 
-0.376612 -0.375 -0.0750798 
-0.438439 -0.4375 -0.0437956 
-0.5 -0.5 0 
-7.95491e-05 -0.0625 -4.54566e-05 
-0.0634983 -0.125 -0.0438297 
-0.126652 -0.1875 -0.0751025 
-0.18954 -0.25 -0.0938639 
-0.252163 -0.3125 -0.100114 
-0.31452 -0.375 -0.0938526 
-0.376612 -0.4375 -0.0750798 
-0.438439 -0.5 -0.0437956 
-7.95491e-05 -0.125 -4.54566e-05 
-0.0634983 -0.1875 -0.0438297 
-0.126652 -0.25 -0.0751025 
-0.18954 -0.3125 -0.0938639 
-0.252163 -0.375 -0.100114 
-0.31452 -0.4375 -0.0938526 
-0.376612 -0.5 -0.0750798 
-7.95491e-05 -0.1875 -4.54566e-05 
-0.0634983 -0.25 -0.0438297 
-0.126652 -0.3125 -0.0751025 
-0.18954 -0.375 -0.0938639 
-0.252163 -0.4375 -0.100114 
-0.31452 -0.5 -0.0938526 
-7.95491e-05 -0.25 -4.54566e-05 
-0.0634983 -0.3125 -0.0438297 
-0.126652 -0.375 -0.0751025 
-0.18954 -0.4375 -0.0938639 
-0.252163 -0.5 -0.100114 
-7.95491e-05 -0.3125 -4.54566e-05 
-0.0634983 -0.375 -0.0438297 
-0.126652 -0.4375 -0.0751025 
-0.18954 -0.5 -0.0938639 
-7.95491e-05 -0.375 -4.54566e-05 
-0.0634983 -0.4375 -0.0438297 
-0.126652 -0.5 -0.0751025 
-7.95491e-05 -0.4375 -4.54566e-05 
-0.0634983 -0.5 -0.0438297 
-7.95491e-05 -0.5 -4.54566e-05 
-7.95491e-05 -0.5 -4.54566e-05 
0.063337 -0.4375 0.0437673 
0.126495 -0.375 0.0750637 
0.189393 -0.3125 0.0938438 
0.252033 -0.25 0.100108 
0.314413 -0.1875 0.0938552 
0.376534 -0.125 0.0750864 
0.438397 -0.0625 0.0438014 
0.5 0 0 
-7.95491e-05 -0.4375 -4.54566e-05 
0.063337 -0.375 0.0437673 
0.126495 -0.3125 0.0750637 
0.189393 -0.25 0.0938438 
0.252033 -0.1875 0.100108 
0.314413 -0.125 0.0938552 
0.376534 -0.0625 0.0750864 
0.438397 0 0.0438014 
-7.95491e-05 -0.375 -4.54566e-05 
0.063337 -0.3125 0.0437673 
0.126495 -0.25 0.0750637 
0.189393 -0.1875 0.0938438 
0.252033 -0.125 0.100108 
0.314413 -0.0625 0.0938552 
0.376534 0 0.0750864 
-7.95491e-05 -0.3125 -4.54566e-05 
0.063337 -0.25 0.0437673 
0.126495 -0.1875 0.0750637 
0.189393 -0.125 0.0938438 
0.252033 -0.0625 0.100108 
0.314413 0 0.0938552 
-7.95491e-05 -0.25 -4.54566e-05 
0.063337 -0.1875 0.0437673 
0.126495 -0.125 0.0750637 
0.189393 -0.0625 0.0938438 
0.252033 0 0.100108 
-7.95491e-05 -0.1875 -4.54566e-05 
0.063337 -0.125 0.0437673 
0.126495 -0.0625 0.0750637 
0.189393 0 0.0938438 
-7.95491e-05 -0.125 -4.54566e-05 
0.063337 -0.0625 0.0437673 
0.126495 0 0.0750637 
-7.95491e-05 -0.0625 -4.54566e-05 
0.063337 0 0.0437673 
-7.95491e-05 0 -4.54566e-05 
0.5 0 0 
0.438397 -0.0625 0.0438014 
0.376534 -0.125 0.0750864 
0.314413 -0.1875 0.0938552 
0.252033 -0.25 0.100108 
0.189393 -0.3125 0.0938438 
0.126495 -0.375 0.0750637 
0.063337 -0.4375 0.0437673 
-7.95491e-05 -0.5 -4.54566e-05 
0.5 -0.0625 0 
0.438397 -0.125 0.0438014 
0.376534 -0.1875 0.0750864 
0.314413 -0.25 0.0938552 
0.252033 -0.3125 0.100108 
0.189393 -0.375 0.0938438 
0.126495 -0.4375 0.0750637 
0.063337 -0.5 0.0437673 
0.5 -0.125 0 
0.438397 -0.1875 0.0438014 
0.376534 -0.25 0.0750864 
0.314413 -0.3125 0.0938552 
0.252033 -0.375 0.100108 
0.189393 -0.4375 0.0938438 
0.126495 -0.5 0.0750637 
0.5 -0.1875 0 
0.438397 -0.25 0.0438014 
0.376534 -0.3125 0.0750864 
0.314413 -0.375 0.0938552 
0.252033 -0.4375 0.100108 
0.189393 -0.5 0.0938438 
0.5 -0.25 0 
0.438397 -0.3125 0.0438014 
0.376534 -0.375 0.0750864 
0.314413 -0.4375 0.0938552 
0.252033 -0.5 0.100108 
0.5 -0.3125 0 
0.438397 -0.375 0.0438014 
0.376534 -0.4375 0.0750864 
0.314413 -0.5 0.0938552 
0.5 -0.375 0 
0.438397 -0.4375 0.0438014 
0.376534 -0.5 0.0750864 
0.5 -0.4375 0 
0.438397 -0.5 0.0438014 
0.5 -0.5 0 
0.5 0 -0.05 
0.5 -0.0625 -0.05625 
0.5 -0.125 -0.0625 
0.5 -0.1875 -0.06875 
0.5 -0.25 -0.075 
0.5 -0.3125 -0.08125 
0.5 -0.375 -0.0875 
0.5 -0.4375 -0.09375 
0.5 -0.5 -0.1 
0.5 0 -0.05625 
0.5 -0.0625 -0.0625 
0.5 -0.125 -0.06875 
0.5 -0.1875 -0.075 
0.5 -0.25 -0.08125 
0.5 -0.3125 -0.0875 
0.5 -0.375 -0.09375 
0.5 -0.4375 -0.1 
0.5 0 -0.0625 
0.5 -0.0625 -0.06875 
0.5 -0.125 -0.075 
[...]
<PointData>
<DataArray type="Float64" Name="detJacobian" NumberOfComponents="1" format="ascii">
1
0.909617
0.838259
0.791091
0.772556
0.784685
0.82613
0.892817
0.979605
0.909617
0.838259
0.791091
0.772556
0.784685
0.82613
0.892817
0.979605
0.838259
0.791091
0.772556
0.784685
0.82613
0.892817
0.979605
0.791091
0.772556
0.784685
0.82613
0.892817
0.979605
0.772556
0.784685
0.82613
0.892817
0.979605
0.784685
0.82613
0.892817
0.979605
0.82613
0.892817
0.979605
0.892817
0.979605
0.979605
0.979605
0.892817
0.82613
0.784685
0.772556
0.791091
0.838259
0.909617
1
0.892817
0.82613
0.784685
0.772556
0.791091
0.838259
0.909617
1
0.82613
0.784685
0.772556
0.791091
0.838259
0.909617
1
0.784685
0.772556
0.791091
0.838259
0.909617
1
0.772556
0.791091
0.838259
0.909617
1
0.791091
0.838259
0.909617
1
0.838259
0.909617
1
0.909617
1
1
0.97992
0.893083
0.826342
0.784842
0.772659
0.791149
0.838284
0.909624
1
0.893083
0.826342
0.784842
0.772659
0.791149
0.838284
0.909624
1
0.826342
0.784842
0.772659
0.791149
0.838284
0.909624
1
0.784842
0.772659
0.791149
0.838284
0.909624
1
0.772659
0.791149
0.838284
0.909624
1
0.791149
0.838284
0.909624
1
0.838284
0.909624
1
0.909624
1
1
1
0.909624
0.838284
0.791149
0.772659
0.784842
0.826342
0.893083
0.97992
0.909624
0.838284
0.791149
0.772659
0.784842
0.826342
0.893083
0.97992
0.838284
0.791149
0.772659
0.784842
0.826342
0.893083
0.97992
0.791149
0.772659
0.784842
0.826342
0.893083
0.97992
0.772659
0.784842
0.826342
0.893083
0.97992
0.784842
0.826342
0.893083
0.97992
0.826342
0.893083
0.97992
0.893083
0.97992
0.97992
0.979605
0.892817
0.82613
0.784685
0.772556
0.791091
0.838259
0.909617
1
0.979605
0.892817
0.82613
0.784685
0.772556
0.791091
0.838259
0.909617
0.979605
0.892817
0.82613
0.784685
0.772556
0.791091
0.838259
0.979605
0.892817
0.82613
0.784685
0.772556
0.791091
0.979605
0.892817
0.82613
0.784685
0.772556
0.979605
0.892817
0.82613
0.784685
0.979605
0.892817
0.82613
0.979605
0.892817
0.979605
1
0.909617
0.838259
0.791091
0.772556
0.784685
0.82613
0.892817
0.979605
1
0.909617
0.838259
0.791091
0.772556
0.784685
0.82613
0.892817
1
0.909617
0.838259
0.791091
0.772556
0.784685
0.82613
1
0.909617
0.838259
0.791091
0.772556
0.784685
1
0.909617
0.838259
0.791091
0.772556
1
0.909617
0.838259
0.791091
1
0.909617
0.838259
1
0.909617
1
1
0.909624
0.838284
0.791149
0.772659
0.784842
0.826342
0.893083
0.97992
1
0.909624
0.838284
0.791149
0.772659
0.784842
0.826342
0.893083
1
0.909624
0.838284
0.791149
0.772659
0.784842
0.826342
1
0.909624
0.838284
0.791149
0.772659
0.784842
1
0.909624
0.838284
0.791149
0.772659
1
0.909624
0.838284
0.791149
1
0.909624
0.838284
1
0.909624
1
0.97992
0.893083
0.826342
0.784842
0.772659
0.791149
0.838284
0.909624
1
0.97992
0.893083
0.826342
0.784842
0.772659
0.791149
0.838284
0.909624
0.97992
0.893083
0.826342
0.784842
0.772659
0.791149
0.838284
0.97992
0.893083
0.826342
0.784842
0.772659
0.791149
0.97992
0.893083
0.826342
0.784842
0.772659
0.97992
0.893083
0.826342
0.784842
0.97992
0.893083
0.826342
0.97992
0.893083
0.97992
1
1
1
1
1
1
1
1
1
1
1
1
1
1
1
1
1
1
1
1
1
1
1
1
1
1
1
1
1
1
1
1
1
1
1
1
1
1
1
1
1
1
1
1
1
1
1
1
1
1
1
1
1
1
1
1
1
1
1
1
1
1
1
1
1
1
1
1
1
1
1
1
1
1
1
1
1
1
1
1
1
1
1
1
1
1
1
1
1
1
1
1
1
1
1
1
1
1
1
1
1
1
1
1
1
1
1
1
1
1
1
1
1
1
1
1
1
1
1
1
1
1
1
1
1
1
1
1
1
1
1
1
1
1
1
1
1
1
1
1
1
1
1
1
1
1
1
1
1
1
1
1
1
1
1
1
1
1
1
1
1
1
1
1
1
1
1
1
1
1
1
1
1
1
1
1
1
1
1
1
1
1
1
1
1
1
1
1
1
1
1
1
1
1
1
1
1
1
1
1
1
1
1
1
1
1
1
1
1
1
1
1
1
1
1
1
1
1
1
1
1
1
1
1
1
1
1
1
1
1
1
1
1
1
1
1
1
1
1
1
1
1
1
1
1
1
1
1
1
1
1
1
1
1
1
1
1
1
1
1
1
1
1
1
1
1
1
1
1
1
1
1
1
1
1
1
1
1
1
1
1
1
1
1
1
1
1
1
1
1
1
1
1
1
1
1
1
1
1
1
1
1
1
1
1
1
1
1
1
1
1
1
1
1
1
1
1
1
1
1
1
1
1
1
1
1
1
1
1
1
1
1
1
1
1
1
1
1
1
1
1
1
1
1
1
1
1
1
1
1
1
1
1
1
1
1
1
1
1
1
1
0.909624
0.838284
0.791149
0.772659
0.784842
0.826342
0.893083
0.97992
1
0.909624
0.838284
0.791149
0.772659
0.784842
0.826342
0.893083
1
0.909624
0.838284
0.791149
0.772659
0.784842
0.826342
1
0.909624
0.838284
0.791149
0.772659
0.784842
1
0.909624
0.838284
0.791149
0.772659
1
0.909624
0.838284
0.791149
1
0.909624
0.838284
1
0.909624
1
0.97992
0.893083
0.826342
0.784842
0.772659
0.791149
0.838284
0.909624
1
0.97992
0.893083
0.826342
0.784842
0.772659
0.791149
0.838284
0.909624
0.97992
0.893083
0.826342
0.784842
0.772659
0.791149
0.838284
0.97992
0.893083
0.826342
0.784842
0.772659
0.791149
0.97992
0.893083
0.826342
0.784842
0.772659
0.97992
0.893083
0.826342
0.784842
0.97992
0.893083
0.826342
0.97992
0.893083
0.97992
0.979605
0.892817
0.82613
0.784685
0.772556
0.791091
0.838259
0.909617
1
0.979605
0.892817
0.82613
0.784685
0.772556
0.791091
0.838259
0.909617
0.979605
0.892817
0.82613
0.784685
0.772556
0.791091
0.838259
0.979605
0.892817
0.82613
0.784685
0.772556
0.791091
0.979605
0.892817
0.82613
0.784685
0.772556
0.979605
0.892817
0.82613
0.784685
0.979605
0.892817
0.82613
0.979605
0.892817
0.979605
1
0.909617
0.838259
0.791091
0.772556
0.784685
0.82613
0.892817
0.979605
1
0.909617
0.838259
0.791091
0.772556
0.784685
0.82613
0.892817
1
0.909617
0.838259
0.791091
0.772556
0.784685
0.82613
1
0.909617
0.838259
0.791091
0.772556
0.784685
1
0.909617
0.838259
0.791091
0.772556
1
0.909617
0.838259
0.791091
1
0.909617
0.838259
1
0.909617
1
0.97992
0.893083
0.826342
0.784842
0.772659
0.791149
0.838284
0.909624
1
0.893083
0.826342
0.784842
0.772659
0.791149
0.838284
0.909624
1
0.826342
0.784842
0.772659
0.791149
0.838284
0.909624
1
0.784842
0.772659
0.791149
0.838284
0.909624
1
0.772659
0.791149
0.838284
0.909624
1
0.791149
0.838284
0.909624
1
0.838284
0.909624
1
0.909624
1
1
1
0.909624
0.838284
0.791149
0.772659
0.784842
0.826342
0.893083
0.97992
0.909624
0.838284
0.791149
0.772659
0.784842
0.826342
0.893083
0.97992
0.838284
0.791149
0.772659
0.784842
0.826342
0.893083
0.97992
0.791149
0.772659
0.784842
0.826342
0.893083
0.97992
0.772659
0.784842
0.826342
0.893083
0.97992
0.784842
0.826342
0.893083
0.97992
0.826342
0.893083
0.97992
0.893083
0.97992
0.97992
1
0.909617
0.838259
0.791091
0.772556
0.784685
0.82613
0.892817
0.979605
0.909617
0.838259
0.791091
0.772556
0.784685
0.82613
0.892817
0.979605
0.838259
0.791091
0.772556
0.784685
0.82613
0.892817
0.979605
0.791091
0.772556
0.784685
0.82613
0.892817
0.979605
0.772556
0.784685
0.82613
0.892817
0.979605
0.784685
0.82613
0.892817
0.979605
0.82613
0.892817
0.979605
0.892817
0.979605
0.979605
0.979605
0.892817
0.82613
0.784685
0.772556
0.791091
0.838259
0.909617
1
0.892817
0.82613
0.784685
0.772556
0.791091
0.838259
0.909617
1
0.82613
0.784685
0.772556
0.791091
0.838259
0.909617
1
0.784685
0.772556
0.791091
0.838259
0.909617
1
0.772556
0.791091
0.838259
0.909617
1
0.791091
0.838259
0.909617
1
0.838259
0.909617
1
0.909617
1
1
1
1
1
1
1
1
1
1
1
1
1
1
1
1
1
1
1
1
1
1
1
1
1
1
1
1
1
1
1
1
1
1
1
1
1
1
1
1
1
1
1
1
1
1
1
1
1
1
1
1
1
1
1
1
1
1
1
1
1
1
1
1
1
1
1
1
1
1
1
1
1
1
1
1
1
1
1
1
1
1
1
1
1
1
1
1
1
1
1
1
1
1
1
1
1
1
1
1
1
1
1
1
1
1
1
1
1
1
1
1
1
1
1
1
1
1
1
1
1
1
1
1
1
1
1
1
1
1
1
1
1
1
1
1
1
1
1
1
1
1
1
1
1
1
1
1
1
1
1
1
1
1
1
1
1
1
1
1
1
1
1
1
1
1
1
1
1
1
1
1
1
1
1
1
1
1
1
1
1
1
1
1
1
1
1
1
1
1
1
1
1
1
1
1
1
1
1
1
1
1
1
1
1
1
1
1
1
1
1
1
1
1
1
1
1
1
1
1
1
1
1
1
1
1
1
1
1
1
1
1
1
1
1
1
1
1
1
1
1
1
1
1
1
1
1
1
1
1
1
1
1
1
1
1
1
1
1
1
1
1
1
1
1
1
1
1
1
1
1
1
1
1
1
1
1
1
1
1
1
1
1
1
1
1
1
1
1
1
1
1
1
1
1
1
1
1
1
1
1
1
1
1
1
1
1
1
1
1
1
1
1
1
1
1
1
1
1
1
1
1
1
1
1
1
1
1
1
1
1
1
1
1
1
1
1
1
1
1
1
1
1
1
1
1
1
1
1
1
1
1
1
1
1
1
1
1
1
1
1
1
1
0.995228
0.990583
0.986066
0.981677
0.977415
0.97328
0.969273
0.965394
0.995196
0.990551
0.986034
0.981645
0.977383
0.973248
0.969242
0.965362
0.990519
0.986002
0.981613
0.977351
0.973216
0.96921
0.96533
0.98597
0.981581
0.977319
0.973185
0.969178
0.965299
0.981549
0.977287
0.973153
0.969146
0.965267
0.977255
0.973121
0.969114
0.965235
0.973089
0.969082
0.965203
0.96905
0.965171
0.965139
0.967019
0.97104
0.975088
0.979163
0.983265
0.987394
0.99155
0.995733
0.999942
0.971047
0.975095
0.97917
0.983272
0.987401
0.991557
0.99574
0.99995
0.975102
0.979177
0.983279
0.987408
0.991564
0.995747
0.999957
0.979184
0.983286
0.987415
0.991571
0.995754
0.999964
0.983294
0.987423
0.991579
0.995761
0.999971
0.98743
0.991586
0.995769
0.999978
0.991593
0.995776
0.999986
0.995783
0.999993
1
0.966624
0.970694
0.974792
0.978916
0.983068
0.987246
0.991451
0.995683
0.999942
0.970702
0.974799
0.978923
0.983075
0.987253
0.991458
0.995691
0.99995
0.974806
0.978931
0.983082
0.98726
0.991466
0.995698
0.999957
0.978938
0.983089
0.987268
0.991473
0.995705
0.999964
0.983096
0.987275
0.99148
0.995712
0.999971
0.987282
0.991487
0.995719
0.999978
0.991494
0.995727
0.999986
0.995734
0.999993
1
1
0.995179
0.990485
0.985919
0.98148
0.977169
0.972985
0.968929
0.965001
0.995147
0.990453
0.985887
0.981448
0.977137
0.972953
0.968897
0.964969
0.990421
0.985855
0.981416
0.977105
0.972921
0.968865
0.964937
0.985823
0.981384
0.977073
0.972889
0.968833
0.964905
0.981352
0.977041
0.972858
0.968801
0.964873
0.977009
0.972826
0.96877
0.964841
0.972794
0.968738
0.964809
0.968706
0.964777
0.964745
0.964884
0.968827
0.972898
0.977096
0.981421
0.985875
0.990456
0.995164
1
0.964916
0.968859
0.972929
0.977128
0.981453
0.985907
0.990487
0.995196
0.964948
0.968891
0.972961
0.977159
0.981485
0.985938
0.990519
0.96498
0.968923
0.972993
0.977191
0.981517
0.98597
0.965012
0.968955
0.973025
0.977223
0.981549
0.965043
0.968986
0.973057
0.977255
0.965075
0.969018
0.973089
0.965107
0.96905
0.965139
1
0.995677
0.991382
0.987113
0.982871
0.978657
0.974469
0.970308
0.966173
0.999993
0.99567
0.991375
0.987106
0.982864
0.978649
0.974461
0.9703
0.999986
0.995663
0.991368
0.987099
0.982857
0.978642
0.974454
0.999978
0.995656
0.99136
0.987092
0.98285
0.978635
0.999971
0.995649
0.991353
0.987084
0.982843
0.999964
0.995642
0.991346
0.987077
0.999957
0.995634
0.991339
0.99995
0.995627
0.999942
1
0.995727
0.99148
0.987261
0.983069
0.978903
0.974765
0.970653
0.966568
0.999993
0.99572
0.991473
0.987254
0.983061
0.978896
0.974757
0.970646
0.999986
0.995712
0.991466
0.987247
0.983054
0.978889
0.97475
0.999978
0.995705
0.991459
0.987239
0.983047
0.978882
0.999971
0.995698
0.991452
0.987232
0.98304
0.999964
0.995691
0.991444
0.987225
0.999957
0.995684
0.991437
0.99995
0.995676
0.999942
0.965278
0.969171
0.973193
0.977342
0.981618
0.986022
0.990554
0.995213
1
0.96531
0.969203
0.973225
0.977373
0.98165
0.986054
0.990586
0.995245
0.965342
0.969235
0.973256
0.977405
0.981682
0.986086
0.990618
0.965373
0.969267
0.973288
0.977437
0.981714
0.986118
0.965405
0.969299
0.97332
0.977469
0.981746
0.965437
0.969331
0.973352
0.977501
0.965469
0.969363
0.973384
0.965501
0.969395
0.965533
0.999942
0.995733
0.99155
0.987394
0.983265
0.979163
0.975088
0.97104
0.967019
0.99995
0.99574
0.991557
0.987401
0.983272
0.97917
0.975095
0.971047
0.999957
0.995747
0.991564
0.987408
0.983279
0.979177
0.975102
0.999964
0.995754
0.991571
0.987415
0.983286
0.979184
0.999971
0.995761
0.991579
0.987423
0.983294
0.999978
0.995769
0.991586
0.98743
0.999986
0.995776
0.991593
0.999993
0.995783
1
0.965394
0.969273
0.97328
0.977415
0.981677
0.986066
0.990583
0.995228
1
0.965362
0.969242
0.973248
0.977383
0.981645
0.986034
0.990551
0.995196
0.96533
0.96921
0.973216
0.977351
0.981613
0.986002
0.990519
0.965299
0.969178
0.973185
0.977319
0.981581
0.98597
0.965267
0.969146
0.973153
0.977287
0.981549
0.965235
0.969114
0.973121
0.977255
0.965203
0.969082
0.973089
0.965171
0.96905
0.965139
0.965001
0.968929
0.972985
0.977169
0.98148
0.985919
0.990485
0.995179
1
0.964969
0.968897
0.972953
0.977137
0.981448
0.985887
0.990453
0.995147
0.964937
0.968865
0.972921
0.977105
0.981416
0.985855
0.990421
0.964905
0.968833
0.972889
0.977073
0.981384
0.985823
0.964873
0.968801
0.972858
0.977041
0.981352
0.964841
0.96877
0.972826
0.977009
0.964809
0.968738
0.972794
0.964777
0.968706
0.964745
0.999942
0.995683
0.991451
0.987246
0.983068
0.978916
0.974792
0.970694
0.966624
0.99995
0.995691
0.991458
0.987253
0.983075
0.978923
0.974799
0.970702
0.999957
0.995698
0.991466
0.98726
0.983082
0.978931
0.974806
0.999964
0.995705
0.991473
0.987268
0.983089
0.978938
0.999971
0.995712
0.99148
0.987275
0.983096
0.999978
0.995719
0.991487
0.987282
0.999986
0.995727
0.991494
0.999993
0.995734
1
0.966173
0.970308
0.974469
0.978657
0.982871
0.987113
0.991382
0.995677
1
0.9703
0.974461
0.978649
0.982864
0.987106
0.991375
0.99567
0.999993
0.974454
0.978642
0.982857
0.987099
0.991368
0.995663
0.999986
0.978635
0.98285
0.987092
0.99136
0.995656
0.999978
0.982843
0.987084
0.991353
0.995649
0.999971
0.987077
0.991346
0.995642
0.999964
0.991339
0.995634
0.999957
0.995627
0.99995
0.999942
1
0.995164
0.990456
0.985875
0.981421
0.977096
0.972898
0.968827
0.964884
0.995196
0.990487
0.985907
0.981453
0.977128
0.972929
0.968859
0.964916
0.990519
0.985938
0.981485
0.977159
0.972961
0.968891
0.964948
0.98597
0.981517
0.977191
0.972993
0.968923
0.96498
0.981549
0.977223
0.973025
0.968955
0.965012
0.977255
0.973057
0.968986
0.965043
0.973089
0.969018
0.965075
0.96905
0.965107
0.965139
1
0.995213
0.990554
0.986022
0.981618
0.977342
0.973193
0.969171
0.965278
0.995245
0.990586
0.986054
0.98165
0.977373
0.973225
0.969203
0.96531
0.990618
0.986086
0.981682
0.977405
0.973256
0.969235
0.965342
0.986118
0.981714
0.977437
0.973288
0.969267
0.965373
0.981746
0.977469
0.97332
0.969299
0.965405
0.977501
0.973352
0.969331
0.965437
0.973384
0.969363
0.965469
0.969395
0.965501
0.965533
0.966568
0.970653
0.974765
0.978903
0.983069
0.987261
0.99148
0.995727
1
0.970646
0.974757
0.978896
0.983061
0.987254
0.991473
0.99572
0.999993
0.97475
0.978889
0.983054
0.987247
0.991466
0.995712
0.999986
0.978882
0.983047
0.987239
0.991459
0.995705
0.999978
0.98304
0.987232
0.991452
0.995698
0.999971
0.987225
0.991444
0.995691
0.999964
0.991437
0.995684
0.999957
0.995676
0.99995
0.999942
1
1
1
1
1
1
1
1
1
1
1
1
1
1
1
1
1
1
1
1
1
1
1
1
1
1
1
1
1
1
1
1
1
1
1
1
1
1
1
1
1
1
1
1
1
1
0.995228
0.990583
0.986066
0.981677
0.977415
0.97328
0.969273
0.965394
0.995196
0.990551
0.986034
0.981645
0.977383
0.973248
0.969242
0.965362
0.990519
0.986002
0.981613
0.977351
0.973216
0.96921
0.96533
0.98597
0.981581
0.977319
0.973185
0.969178
0.965299
0.981549
0.977287
0.973153
0.969146
0.965267
0.977255
0.973121
0.969114
0.965235
0.973089
0.969082
0.965203
0.96905
0.965171
0.965139
0.967019
0.97104
0.975088
0.979163
0.983265
0.987394
0.99155
0.995733
0.999942
0.971047
0.975095
0.97917
0.983272
0.987401
0.991557
0.99574
0.99995
0.975102
0.979177
0.983279
0.987408
0.991564
0.995747
0.999957
0.979184
0.983286
0.987415
0.991571
0.995754
0.999964
0.983294
0.987423
0.991579
0.995761
0.999971
0.98743
0.991586
0.995769
0.999978
0.991593
0.995776
0.999986
0.995783
0.999993
1
1
0.910194
0.839341
0.792541
0.774167
0.786215
0.827358
0.893585
0.979823
0.910172
0.839317
0.792516
0.774142
0.786191
0.827335
0.893564
0.979804
0.839294
0.792491
0.774116
0.786166
0.827312
0.893543
0.979785
0.792466
0.774091
0.786142
0.827289
0.893522
0.979767
0.774066
0.786117
0.827266
0.893501
0.979748
0.786093
0.827243
0.89348
0.979729
0.82722
0.893459
0.97971
0.893438
0.979692
0.979673
0.979841
0.893586
0.827339
0.786174
0.774103
0.792458
0.839243
0.910085
0.999884
0.893582
0.827338
0.786176
0.774109
0.792466
0.839254
0.910098
0.999899
0.827337
0.786178
0.774115
0.792475
0.839266
0.910112
0.999913
0.786181
0.77412
0.792484
0.839277
0.910125
0.999928
0.774126
0.792492
0.839288
0.910138
0.999942
0.792501
0.839299
0.910151
0.999957
0.83931
0.910164
0.999971
0.910177
0.999986
1
0.889123
0.889123
0.889123
0.889123
0.889123
0.889123
0.889123
0.889123
0.889123
0.815202
0.815202
0.815202
0.815202
0.815202
0.815202
0.815202
0.815202
0.76292
0.76292
0.76292
0.76292
0.76292
0.76292
0.76292
0.736895
0.736895
0.736895
0.736895
0.736895
0.736895
0.739905
0.739905
0.739905
0.739905
0.739905
0.771608
0.771608
0.771608
0.771608
0.82872
0.82872
0.82872
0.906449
0.906449
1
0.984199
0.98611
0.988039
0.989986
0.991952
0.993936
0.995939
0.99796
1
0.986106
0.988035
0.989983
0.991949
0.993933
0.995935
0.997957
0.999996
0.988032
0.989979
0.991945
0.993929
0.995932
0.997953
0.999993
0.989976
0.991941
0.993925
0.995928
0.997949
0.999989
0.991938
0.993922
0.995924
0.997946
0.999985
0.993918
0.995921
0.997942
0.999982
0.995917
0.997938
0.999978
0.997935
0.999974
0.999971
1
1
1
1
1
1
1
1
1
1
1
1
1
1
1
1
1
1
1
1
1
1
1
1
1
1
1
1
1
1
1
1
1
1
1
1
1
1
1
1
1
1
1
1
1
1
0.909621
0.838272
0.79112
0.772607
0.784764
0.826236
0.89295
0.979762
0.909621
0.838272
0.79112
0.772607
0.784764
0.826236
0.89295
0.979762
0.838272
0.79112
0.772607
0.784764
0.826236
0.89295
0.979762
0.79112
0.772607
0.784764
0.826236
0.89295
0.979762
0.772607
0.784764
0.826236
0.89295
0.979762
0.784764
0.826236
0.89295
0.979762
0.826236
0.89295
0.979762
0.89295
0.979762
0.979762
0.979762
0.89295
0.826236
0.784764
0.772607
0.79112
0.838272
0.909621
1
0.89295
0.826236
0.784764
0.772607
0.79112
0.838272
0.909621
1
0.826236
0.784764
0.772607
0.79112
0.838272
0.909621
1
0.784764
0.772607
0.79112
0.838272
0.909621
1
0.772607
0.79112
0.838272
0.909621
1
0.79112
0.838272
0.909621
1
0.838272
0.909621
1
0.909621
1
1
0.98246
0.982476
0.982492
0.982508
0.982524
0.98254
0.982556
0.982572
0.982588
0.984411
0.984427
0.984443
0.984459
0.984475
0.984491
0.984507
0.984523
0.98643
0.986446
0.986462
0.986478
0.986494
0.98651
0.986526
0.988518
0.988534
0.98855
0.988566
0.988582
0.988599
0.990675
0.990691
0.990707
0.990723
0.990739
0.992901
0.992917
0.992934
0.99295
0.995197
0.995213
0.99523
0.997563
0.99758
1
0.889123
0.815202
0.76292
0.736895
0.739905
0.771608
0.82872
0.906449
1
0.815202
0.76292
0.736895
0.739905
0.771608
0.82872
0.906449
1
0.76292
0.736895
0.739905
0.771608
0.82872
0.906449
1
0.736895
0.739905
0.771608
0.82872
0.906449
1
0.739905
0.771608
0.82872
0.906449
1
0.771608
0.82872
0.906449
1
0.82872
0.906449
1
0.906449
1
1
1
1
1
1
1
1
1
1
1
1
1
1
1
1
1
1
1
1
1
1
1
1
1
1
1
1
1
1
1
1
1
1
1
1
1
1
1
1
1
1
1
1
1
1
1
1
0.910194
0.839341
0.792541
0.774167
0.786215
0.827358
0.893585
0.979823
0.910172
0.839317
0.792516
0.774142
0.786191
0.827335
0.893564
0.979804
0.839294
0.792491
0.774116
0.786166
0.827312
0.893543
0.979785
0.792466
0.774091
0.786142
0.827289
0.893522
0.979767
0.774066
0.786117
0.827266
0.893501
0.979748
0.786093
0.827243
0.89348
0.979729
0.82722
0.893459
0.97971
0.893438
0.979692
0.979673
0.979841
0.893586
0.827339
0.786174
0.774103
0.792458
0.839243
0.910085
0.999884
0.893582
0.827338
0.786176
0.774109
0.792466
0.839254
0.910098
0.999899
0.827337
0.786178
0.774115
0.792475
0.839266
0.910112
0.999913
0.786181
0.77412
0.792484
0.839277
0.910125
0.999928
0.774126
0.792492
0.839288
0.910138
0.999942
0.792501
0.839299
0.910151
0.999957
0.83931
0.910164
0.999971
0.910177
0.999986
1
0.889123
0.889123
0.889123
0.889123
0.889123
0.889123
0.889123
0.889123
0.889123
0.815202
0.815202
0.815202
0.815202
0.815202
0.815202
0.815202
0.815202
0.76292
0.76292
0.76292
0.76292
0.76292
0.76292
0.76292
0.736895
0.736895
0.736895
0.736895
0.736895
0.736895
0.739905
0.739905
0.739905
0.739905
0.739905
0.771608
0.771608
0.771608
0.771608
0.82872
0.82872
0.82872
0.906449
0.906449
1
0.889475
0.816061
0.764179
0.738382
0.741398
0.772891
0.829622
0.906868
0.999886
0.816058
0.76418
0.738386
0.741405
0.7729
0.829633
0.906881
0.9999
0.76418
0.73839
0.741412
0.77291
0.829645
0.906894
0.999914
0.738394
0.741419
0.772919
0.829657
0.906908
0.999928
0.741426
0.772929
0.829669
0.906921
0.999943
0.772938
0.82968
0.906934
0.999957
0.829692
0.906947
0.999971
0.906961
0.999986
1
1
1
1
1
1
1
1
1
1
1
1
1
1
1
1
1
1
1
1
1
1
1
1
1
1
1
1
1
1
1
1
1
1
1
1
1
1
1
1
1
1
1
1
1
1
1
0.909621
0.838272
0.79112
0.772607
0.784764
0.826236
0.89295
0.979762
0.909621
0.838272
0.79112
0.772607
0.784764
0.826236
0.89295
0.979762
0.838272
0.79112
0.772607
0.784764
0.826236
0.89295
0.979762
0.79112
0.772607
0.784764
0.826236
0.89295
0.979762
0.772607
0.784764
0.826236
0.89295
0.979762
0.784764
0.826236
0.89295
0.979762
0.826236
0.89295
0.979762
0.89295
0.979762
0.979762
0.979762
0.89295
0.826236
0.784764
0.772607
0.79112
0.838272
0.909621
1
0.89295
0.826236
0.784764
0.772607
0.79112
0.838272
0.909621
1
0.826236
0.784764
0.772607
0.79112
0.838272
0.909621
1
0.784764