<VTKFile type="UnstructuredGrid">
<UnstructuredGrid>
<Piece NumberOfPoints="45" NumberOfCells="64">
<Points>
<DataArray type="Float64" Name="coordinates" NumberOfComponents="3" format="ascii">
-0.5 0 -0.1 
-0.445242 6.22524e-18 -0.120655 
-0.384157 1.06719e-17 -0.133212 
-0.318802 1.334e-17 -0.137875 
-0.251235 1.42295e-17 -0.134851 
-0.183513 1.33404e-17 -0.124346 
-0.117695 1.06727e-17 -0.106565 
-0.0558383 6.22634e-18 -0.0817148 
-1.10318e-16 1.41177e-21 -0.05 
-0.445235 0 -0.126185 
-0.38622 5.84096e-18 -0.139798 
-0.322245 9.86641e-18 -0.145166 
-0.255368 1.20763e-17 -0.142494 
-0.187647 1.24708e-17 -0.131988 
-0.121138 1.10496e-17 -0.113854 
-0.0579005 7.813e-18 -0.0882976 
8.79784e-06 2.76081e-18 -0.0555248 
-0.384141 0 -0.144887 
-0.322237 5.41974e-18 -0.151311 
-0.25674 8.98705e-18 -0.149343 
-0.189708 1.07019e-17 -0.139189 
-0.1232 1.05643e-17 -0.121054 
-0.0592714 8.57427e-18 -0.0951447 
1.85778e-05 4.73175e-18 -0.0616663 
-0.318777 0 -0.156106 
-0.25535 4.9616e-18 -0.155194 
-0.189699 8.03383e-18 -0.145744 
-0.12388 9.21668e-18 -0.127961 
-0.0599515 8.51015e-18 -0.102051 
2.90125e-05 5.91424e-18 -0.068219 
-0.251199 0 -0.159841 
-0.187618 4.46653e-18 -0.151447 
-0.12318 7.00675e-18 -0.134368 
-0.059941 7.62067e-18 -0.10881 
3.97746e-05 6.30827e-18 -0.0749773 
-0.183467 0 -0.156094 
-0.121099 3.93452e-18 -0.140071 
-0.0592403 5.90581e-18 -0.115216 
5.05366e-05 5.91385e-18 -0.0817355 
-0.117638 0 -0.144863 
-0.0578497 3.36558e-18 -0.121065 
6.09713e-05 4.731e-18 -0.0882882 
-0.0557695 0 -0.12615 
7.07513e-05 2.75971e-18 -0.0944298 
7.95491e-05 0 -0.0999545 
</DataArray>
</Points>
<Cells>
<DataArray type="Int32" Name="connectivity" format="ascii">
44 43 42
43 41 40
42 40 39
41 38 37
40 37 36
39 36 35
38 34 33
37 33 32
36 32 31
35 31 30
34 29 28
33 28 27
32 27 26
31 26 25
30 25 24
29 23 22
28 22 21
27 21 20
26 20 19
25 19 18
24 18 17
23 16 15
22 15 14
21 14 13
20 13 12
19 12 11
18 11 10
17 10 9
16 8 7
15 7 6
14 6 5
13 5 4
12 4 3
11 3 2
10 2 1
9 1 0
40 43 42
37 41 40
36 40 39
33 38 37
32 37 36
31 36 35
28 34 33
27 33 32
26 32 31
25 31 30
22 29 28
21 28 27
20 27 26
19 26 25
18 25 24
15 23 22
14 22 21
13 21 20
12 20 19
11 19 18
10 18 17
7 16 15
6 15 14
5 14 13
4 13 12
3 12 11
2 11 10
1 10 9
</DataArray>
<DataArray type="Int32" Name="offsets" format="ascii">
3
6
9
12
15
18
21
24
27
30
33
36
39
42
45
48
51
54
57
60
63
66
69
72
75
78
81
84
87
90
93
96
99
102
105
108
111
114
117
120
123
126
129
132
135
138
141
144
147
150
153
156
159
162
165
168
171
174
177
180
183
186
189
192
</DataArray>
<DataArray type="UInt8" Name="types" format="ascii">
5
5
5
5
5
5
5
5
5
5
5
5
5
5
5
5
5
5
5
5
5
5
5
5
5
5
5
5
5
5
5
5
5
5
5
5
5
5
5
5
5
5
5
5
5
5
5
5
5
5
5
5
5
5
5
5
5
5
5
5
5
5
5
5
</DataArray>
</Cells>
<PointData>
<DataArray type="Float64" Name="detJacobian" NumberOfComponents="1" format="ascii">
-2.31829e-17
-2.04387e-17
-1.66567e-17
-1.21823e-17
-7.33185e-18
-2.39228e-18
2.37847e-08
6.75171e-08
1.05279e-07
-2.51688e-17
-2.11201e-17
-1.63262e-17
-1.11181e-17
-5.79728e-18
-6.36289e-19
4.12159e-08
8.26223e-08
-2.58193e-17
-2.07189e-17
-1.51661e-17
-9.47705e-18
-3.93882e-18
1.1907e-08
5.68279e-08
-2.52559e-17
-1.93713e-17
-1.3327e-17
-7.42455e-18
-1.9364e-18
2.89415e-08
-2.36292e-17
-1.72426e-17
-1.09889e-17
-5.15513e-18
8.66816e-12
-2.11193e-17
-1.45274e-17
-8.36093e-18
-2.89248e-18
-1.79353e-17
-1.14492e-17
-5.68134e-18
-1.43155e-17
-8.26112e-18
-1.05272e-17
</DataArray>
</PointData>
</Piece>
</UnstructuredGrid>
</VTKFile>
